192
Lattice="23.49574 0.0 0.0 -1e-06 23.49574 0.0 -1e-06 -1e-06 23.49574" Properties=species:S:1:pos:R:3:forces:R:3 energy=-1103.51567 free_energy=-1103.51567 stress="0.0 0.0 0.0 0.0 0.0 0.0 0.0 0.0 0.0" pbc="T T T"
O       11.25990000      18.57530000      16.00080000      -0.00284410       0.00350829      -0.00338788
H       12.02480000      19.56960000      14.68110000       0.00367887      -0.00296329      -0.00526889
H       12.29820000      18.94570000      17.48430000      -0.00679801       0.00182854      -0.00089304
O       14.71100000      11.86550000       1.46773000       0.00283695       0.00036715       0.00078487
H       13.80980000      10.42530000       2.20174000       0.00780612       0.00348280      -0.00014098
H       13.90840000      12.16620000      -0.16833700       0.00348591       0.00393688       0.00341758
O        2.19828000       8.59664000       9.33312000      -0.00952143      -0.00241945       0.00302788
H        2.81073000       8.31591000       7.66112000       0.00146217       0.00400072      -0.00439324
H        2.14851000       6.89293000      10.00710000      -0.00552321       0.00556687      -0.00506576
O        9.71571000      13.59140000      16.05850000       0.00082140       0.00384430       0.00710915
H        8.92699000      12.73050000      14.64570000       0.00016872       0.00281133       0.00442839
H       10.20350000      15.26950000      15.54110000      -0.00058502       0.00557151       0.00442159
O        2.18849000       5.36026000      -0.02704000      -0.00595303       0.00116379      -0.00246321
H        0.61342700       5.15986000      -0.90743900      -0.00800404       0.00338195       0.00170062
H        1.60162000       5.40214000       1.71659000       0.00198255      -0.00997067       0.00073108
O       22.39970000      22.32240000      20.83140000      -0.00313022       0.00153229       0.00372481
H       22.24670000      22.39680000      22.63570000      -0.00489482       0.00179927       0.00516105
H       23.25910000      20.71470000      20.61000000       0.00160568       0.00594858      -0.00021511
O       10.27070000       4.52820000       6.68024000      -0.00205357       0.00819121       0.00362060
H       11.49610000       4.99100000       7.92445000       0.00700306      -0.00226247       0.00350862
H       10.30900000       2.71767000       6.42763000      -0.00493551       0.00637487      -0.00418728
O       -0.08143400      19.77300000       2.66975000      -0.00347532       0.00245971      -0.00371754
H        1.58683000      19.62530000       3.36887000      -0.00405421      -0.00204819      -0.00360750
H       -1.10586000      20.28270000       4.23016000       0.00056573       0.00325570      -0.00232579
O       11.54310000       1.88951000      20.93520000      -0.00415533      -0.00110995      -0.00224836
H       10.69940000       0.70024700      22.02870000      -0.00753574      -0.00073391      -0.00607700
H       10.43440000       3.35137000      20.99860000       0.00307421       0.00248733       0.00343411
O        6.33675000       3.80932000      16.27310000      -0.00058719       0.00126099      -0.00734184
H        6.95916000       2.09061000      16.74050000       0.00423775       0.00696261      -0.00557053
H        4.53672000       3.68947000      16.16880000      -0.00106015      -0.00519846       0.00432402
O        1.41097000      18.25970000      19.75830000       0.00340276      -0.00898893       0.00190687
H        2.30220000      17.32300000      21.06180000      -0.00519004      -0.00270184       0.00493122
H       -0.29028000      17.66220000      19.52740000       0.00532428      -0.00769726       0.00022019
O       11.98840000       7.99844000       2.93443000      -0.00618026       0.00439227       0.00389961
H       11.34880000       7.64165000       1.24956000       0.00562105      -0.00284384       0.00100453
H       11.44690000       6.63802000       4.02535000       0.00109433      -0.00198790       0.00209030
O        7.62705000       8.23408000      17.91030000       0.00053178      -0.00074851      -0.00309278
H        6.94130000       6.57596000      17.39290000       0.00642774       0.00328922       0.00041426
H        8.80594000       8.68193000      16.61070000      -0.00470568       0.00748233      -0.00212864
O       19.95900000       9.39650000       2.53079000       0.00321178       0.00445283       0.00478699
H       20.64720000      10.01800000       4.09818000      -0.00539365      -0.00082668      -0.00047703
H       18.47980000      10.37250000       2.14931000      -0.00514153       0.00493912       0.00142142
O       10.08830000       6.94129000      21.89480000       0.00036084       0.00133674      -0.00086563
H        9.47961000       7.56908000      20.26290000       0.00283766      -0.00028411      -0.00200768
H        8.60751000       7.46696000      22.91720000       0.00107862      -0.00880816      -0.00225013
O        3.54760000      21.40930000      16.74180000       0.00069415       0.00147503      -0.00212831
H        2.70837000      20.32450000      17.98860000       0.00631652      -0.00396361      -0.00522587
H        3.06132000      23.07870000      17.29110000      -0.00173965      -0.00141768      -0.00081258
O        7.05688000      23.25670000      22.42070000       0.03380690      -0.01147060       0.06837430
H        5.97559000      23.20680000      23.95620000       0.00081808       0.00352300      -0.01220620
H        6.13794000      23.52950000      21.01610000      -0.04143310       0.01099490      -0.05781380
O       12.43570000      21.36680000      11.62660000      -0.06968190      -0.01390910      -0.01603830
H       10.55420000      20.52000000      11.01210000       0.09062130       0.05222020       0.01655870
H       12.72580000      23.05590000      10.81460000      -0.01437510      -0.03437440       0.00536151
O        1.81353000       3.35061000       9.99318000      -0.00522964      -0.00024727      -0.00417640
H        2.03198000       2.77326000      11.69000000       0.00176273      -0.00682480       0.00085333
H        0.14596300       2.74946000       9.54598000       0.00627363       0.00404476       0.00212925
O       10.45270000      20.42110000       6.95926000      -0.00208269       0.00314707       0.00200304
H       12.20300000      20.71080000       6.54378000      -0.00277640      -0.00887887      -0.00069642
H        9.62797000      21.71960000       5.96310000       0.00116063       0.00132943       0.00254489
O        8.89045000      18.62830000      22.22000000       0.00507507      -0.01110250       0.00837276
H        7.83626000      17.85180000      23.48440000      -0.00311474      -0.00438433      -0.00542096
H        8.18255000      20.30910000      22.06060000      -0.00399372       0.00419232      -0.00462359
O        6.64910000      11.07240000      13.22380000      -0.00376984       0.00056624       0.00041942
H        6.88020000      10.38600000      11.56360000      -0.00211931      -0.00068439      -0.00571319
H        5.42784000      12.39710000      13.12050000      -0.00106307      -0.00591319       0.00049496
O        6.07931000       8.12251000       0.86399000      -0.00106493       0.00191975       0.00319526
H        4.63869000       7.10628000       0.31413800      -0.00040907      -0.00192090       0.00118741
H        6.27859000       7.83837000       2.64217000      -0.00338586       0.00289835       0.00243620
O        5.06822000       0.13685400       3.41073000      -0.00548806      -0.00602944      -0.00354902
H        3.89626000       1.51628000       3.24096000      -0.00583521      -0.00003506       0.00461729
H        4.29479000      -1.03132000       4.59667000      -0.00505971      -0.00075652       0.00041981
O        4.15479000      15.60300000       0.65999900       0.00044776      -0.00059344      -0.00206054
H        2.90126000      14.76080000       1.68510000      -0.00081280       0.00721221       0.00402615
H        5.03156000      14.23400000      -0.21578600      -0.00299342       0.01238520      -0.00382213
O        3.31612000      14.25600000       9.56874000       0.02384700      -0.01354480      -0.04648310
H        2.35886000      14.56610000       7.83856000      -0.00671783      -0.00022579       0.01057240
H        4.75182000      15.37660000       9.58879000       0.00627339       0.01212250      -0.00412004
O        9.58535000      12.78820000       4.37752000       0.00285257       0.00130230       0.00232858
H       10.92310000      11.56270000       4.27294000       0.00079596      -0.00395551      -0.00237762
H       10.35400000      14.40990000       4.58074000       0.00540186      -0.00139266      -0.00743220
O       21.49320000       2.58140000      13.65220000      -0.00341186       0.00320802       0.01812210
H       21.98700000       4.32739000      13.50460000      -0.00127416       0.00223491       0.00173420
H       20.71710000       2.01806000      15.58670000       0.01616300       0.00245374      -0.01087640
O       20.25430000       5.35239000      -0.22565200      -0.00115946       0.00195005      -0.00782720
H       18.59450000       4.58377000      -0.43349100       0.00439320      -0.00472018       0.00357146
H       20.05150000       6.57726000       1.14908000       0.00313141      -0.00087900      -0.00505362
O       16.66360000       4.80322000      13.70020000       0.00856613       0.01020090      -0.00053805
H       18.35740000       4.19106000      13.56890000       0.00574558      -0.00697477       0.00221039
H       15.75300000       3.78013000      14.94630000      -0.00159204      -0.00081813      -0.00307828
O       12.67270000      20.53270000       1.81975000       0.01419750      -0.01482200      -0.00166307
H       14.46330000      18.59300000       1.98223000      -0.01870030       0.01355980      -0.00948986
H       11.21590000      19.93080000       0.87340100       0.00908211      -0.00381303       0.00111653
O        3.41040000      19.82120000       6.40995000      -0.00275301       0.00228895       0.00387795
H        4.51246000      18.49710000       5.81149000       0.00067695      -0.00192521       0.00515426
H        2.07786000      18.98070000       7.35545000      -0.00656267       0.00326602      -0.00170220
O       15.20480000       4.00831000      23.31230000       0.00353450       0.00296068      -0.00177034
H       13.82390000       2.94026000      22.67090000       0.00863023      -0.00001430      -0.00017142
H       14.83330000       5.54380000      22.43000000      -0.00191954       0.00509959       0.00479354
O       20.66310000       5.98340000       7.06751000      -0.00234512      -0.00632891       0.00785298
H       20.33610000       7.35480000       8.21071000       0.00112637       0.00235783      -0.00243962
H       19.06210000       5.61222000       6.30848000       0.00035652       0.00375605      -0.00181447
O       17.51920000       9.79588000      14.99190000      -0.00287426      -0.00322541       0.00279346
H       18.02520000       9.30296000      16.69920000      -0.00174134       0.00179749      -0.00414015
H       17.60460000       8.19797000      14.12120000       0.00095847       0.00029155      -0.00186937
O       14.04320000      20.50150000      19.53200000       0.00694607       0.00046962       0.00159155
H       15.22480000      19.23040000      20.02920000       0.00591426       0.00014107       0.00496572
H       13.59340000      21.38690000      21.05860000       0.00091771      -0.00619620       0.00224228
O       10.40380000       5.71719000      13.06600000       0.00104187      -0.00024610      -0.00069972
H        9.92130000       4.24407000      13.98780000      -0.00259537       0.00041340       0.00517275
H       10.74600000       7.09646000      14.21860000       0.00592100      -0.00094920      -0.00451300
O        8.06404000      22.87900000      17.01820000       0.00041425      -0.00857743      -0.00334331
H        9.35762000      21.67350000      16.54630000      -0.00277340       0.00057829       0.00384478
H        6.43316000      21.94060000      16.83680000       0.00740987       0.00060022       0.00155488
O       14.54380000       1.52103000      16.33440000      -0.00078285      -0.00246557       0.00136913
H       13.07050000       1.52194000      17.40920000       0.00075216      -0.00592023       0.00785298
H       14.42120000       0.14695000      15.15720000      -0.00708265      -0.00349123       0.00248099
O        5.65454000      12.16710000      20.99900000      -0.02692470       0.01519860       0.03229550
H        5.19886000      10.75440000      22.06040000       0.01099340      -0.00105335      -0.00883696
H        6.51558000      11.62540000      19.57730000       0.01891340      -0.01767090      -0.02873380
O       16.33790000      22.88200000       3.86432000      -0.00703116       0.01876380       0.01357800
H       14.99880000      21.95230000       2.98793000      -0.00269788      -0.00073136      -0.00480974
H       15.48050000      24.43020000       4.33123000       0.00919662      -0.00390061      -0.01516240
O        2.40604000       2.24073000      19.06930000       0.00029153       0.01331900      -0.01269520
H        3.00151000       3.54080000      20.18170000      -0.00045364      -0.00259290       0.00468752
H        0.60323300       2.35830000      18.96750000      -0.00116491      -0.00291678       0.00913602
O       19.36960000      -0.47150900      11.05350000       0.00209312      -0.00497321      -0.01874090
H       20.09960000       0.96355400      12.16630000       0.00699065       0.00409228      -0.00321971
H       17.67660000      -0.03467200      10.41470000       0.00497066       0.00394761       0.00552226
O       19.80360000       1.25931000      17.64190000      -0.00515740       0.02147060      -0.01305750
H       20.60310000      -0.03350400      18.69730000       0.00011911      -0.01064860       0.01380690
H       17.99040000       1.26264000      17.55660000      -0.00598801      -0.00896369       0.00961819
O       21.75100000      12.88610000      15.25030000       0.00523397      -0.00506412      -0.01192160
H       20.09640000      12.19750000      15.62940000       0.00497539       0.00071091      -0.00715278
H       21.44240000      13.87980000      13.77050000       0.00008021       0.00948907      -0.00290560
O       15.12660000       1.44983000       8.77870000       0.00158294      -0.00766003       0.00693130
H       15.17820000       3.25464000       8.40887000      -0.00100794      -0.00295108       0.00273435
H       15.95730000       0.44209800       7.51273000      -0.00161432       0.00104775      -0.01057840
O        7.24398000       7.56824000       9.45469000      -0.00169119      -0.00064311       0.00354607
H        7.43973000       6.83770000      11.10200000       0.00733698      -0.00447005       0.00107718
H        7.78156000       6.26907000       8.28173000       0.00687135       0.00051484      -0.00116447
O       21.60750000      12.11690000       7.58355000      -0.01141590       0.00023624       0.00981095
H       21.25250000      13.88980000       8.18278000       0.00993265       0.00313512      -0.00190088
H       23.05120000      11.55130000       8.54259000      -0.00996893      -0.00689205       0.00207054
O       14.46930000       6.32674000       9.75782000      -0.00679036       0.00534600      -0.01470150
H       12.94360000       6.54982000      10.73510000      -0.00454026       0.00488222      -0.00182145
H       15.46420000       5.57591000      11.09720000       0.00856641      -0.00030912       0.00709511
O       12.96080000      13.65080000      20.63220000      -0.00186919       0.00059824      -0.00440139
H       11.89650000      12.46440000      19.76910000      -0.00185015       0.00216387      -0.00486119
H       12.07190000      15.22300000      20.43660000      -0.00271515       0.00029424       0.00330113
O        5.43833000      10.26400000       5.87639000      -0.00086551       0.00543293      -0.00190840
H        6.82445000      11.11160000       5.04601000       0.00495277       0.00211448      -0.00077367
H        6.02371000       9.91266000       7.59104000      -0.00070606      -0.00410594      -0.00985034
O       20.32450000      17.40310000      23.08710000      -0.00701584       0.00022599       0.01191740
H       20.80540000      15.93720000      22.05520000      -0.00502001       0.00347808       0.00588825
H       21.70150000      17.73630000      24.31410000      -0.00711312       0.00723621      -0.00277696
O       12.61940000      10.23550000      14.13440000      -0.00154027      -0.00899702       0.00512458
H       14.34280000       9.66591000      14.37720000       0.00250632       0.00542088      -0.00162264
H       12.56300000      11.79560000      15.08870000      -0.00804748      -0.00428016      -0.00238029
O       22.70220000      19.42150000      14.84030000      -0.00922102       0.00169330      -0.00584845
H       24.48970000      19.28530000      14.58240000      -0.00234764       0.00429747      -0.00007608
H       22.00860000      19.56890000      13.15270000       0.00247599      -0.00988408       0.00480211
O       20.22040000       8.88083000      18.91350000       0.02067740       0.01908140      -0.02665690
H       21.84600000       8.80950000      18.00210000      -0.02086320      -0.00594722       0.01362160
H       20.21840000       7.84457000      20.35670000       0.00718308      -0.02541630       0.02563190
O       22.43850000      16.89860000       9.29708000       0.01538580       0.00014333       0.00434856
H       25.79380000      14.50710000      10.99160000      -0.03807350       0.02128410       0.01939060
H       21.95320000      18.60220000       8.75043000      -0.00511398      -0.02196730      -0.00326310
O        9.69537000       0.89440000       3.80574000       0.00965025      -0.00407525      -0.00023631
H       11.34250000       0.37316200       3.27067000       0.00445206      -0.00847178      -0.01057760
H        8.55603000      -0.26845500       3.00669000      -0.00330076       0.00915500       0.00049387
O       15.91260000      17.07670000       2.08164000       0.00448699      -0.00347637       0.00162589
H       17.51750000      17.23220000       1.06100000       0.00575941       0.00231322       0.00033622
H       15.25100000      15.36530000       1.92465000       0.00062474      -0.00431020       0.00100370
O       20.82110000      21.37370000       6.42932000       0.00012403       0.02215410       0.01908760
H       20.47020000      22.86700000       9.41726000      -0.01529640      -0.02300780      -0.01259670
H       19.34250000      21.68230000       5.40376000       0.00446008      -0.00065196       0.00839352
O       21.21050000      13.90920000      19.98250000      -0.00114511      -0.01278360       0.01159900
H       20.61770000      12.20480000      20.31310000       0.00241162       0.00635956      -0.00422777
H       22.65960000      13.71750000      18.92340000      -0.00071550      -0.00131933      -0.00730386
O        1.62929000      13.48350000       4.71129000       0.03643460       0.03710060      -0.00510653
H        3.09543000      12.43290000       4.96870000      -0.00514802      -0.01747250       0.00077444
H        0.10736600      12.75390000       5.32315000      -0.02000300      -0.01211110       0.00980392
O        7.12358000      16.79940000       6.49907000       0.00375629      -0.00479053       0.01166230
H        7.68291000      15.08580000       6.57261000       0.00383239      -0.00263024      -0.00673554
H        8.60392000      17.93770000       6.48004000      -0.00358740      -0.00351277       0.00618683
O        1.13016000       3.41809000       4.47094000       0.00607260       0.00379879       0.00414243
H       -0.50699700       2.65825000       4.67127000       0.00013471      -0.00330730      -0.00073238
H        1.62034000       3.95958000       6.13700000      -0.00267515      -0.00211047      -0.00402789
O        0.12137800       7.78233000      13.85710000      -0.01070180      -0.01355310       0.01443450
H        1.82454000       7.22113000      13.87020000       0.00962283       0.00284102       0.00054603
H        0.17935900       9.54774000      13.47730000      -0.00510702       0.00589101       0.00080666
192
Lattice="23.40199 0.0 0.0 -1e-06 23.40199 0.0 -1e-06 -1e-06 23.40199" Properties=species:S:1:pos:R:3:forces:R:3 energy=-1103.8633 free_energy=-1103.8633 stress="0.0 0.0 0.0 0.0 0.0 0.0 0.0 0.0 0.0" pbc="T T T"
O        6.44160000      10.71070000       4.11473000      -0.00153063      -0.00558738       0.00080181
H        7.51608000      12.16320000       4.13397000       0.00778289      -0.00036489      -0.00186084
H        5.07692000      11.04720000       2.96777000       0.00273707       0.00471184      -0.00822262
O       19.82960000      21.32080000      14.55990000      -0.00716330       0.00497043       0.01067110
H       18.99260000      22.96110000      14.79720000       0.00702470      -0.00545369      -0.00117118
H       19.32910000      20.28490000      15.98430000       0.00718959       0.00334354      -0.01097460
O        7.96307000      17.56650000      13.51190000      -0.01070820       0.00266568       0.00276668
H        9.60706000      16.97940000      13.07740000       0.01461850      -0.00072457      -0.00270355
H        7.81353000      17.03680000      15.24430000      -0.00715386      -0.00606699       0.00281406
O       21.53820000       1.58419000       7.27897000       0.00696191       0.00611696       0.01378770
H       21.35010000       1.73485000       5.48124000      -0.00063468       0.01101390      -0.00006794
H       20.49590000       0.20207100       7.80925000      -0.00315512      -0.01186460       0.00109668
O       13.32790000      16.09980000      18.63350000      -0.00169027      -0.00435323       0.00664332
H       13.83970000      14.36380000      19.06680000       0.00219948       0.00637835       0.00047506
H       12.09630000      16.52700000      19.91510000      -0.00341566      -0.00063406      -0.01043040
O        2.60817000       6.47721000      15.13460000      -0.00647262      -0.00543101       0.00138856
H        2.09156000       5.35240000      13.79490000      -0.00062012       0.00628707       0.00168660
H        3.39129000       5.28692000      16.34670000       0.00054231       0.00835807      -0.00600567
O        9.44260000       2.52445000      21.18680000       0.00118975       0.00338437       0.00647575
H        8.10704000       3.46046000      20.41900000      -0.00603291       0.00072556      -0.01181410
H        8.58684000       1.01477000      21.80660000       0.00617865       0.00294591       0.00104473
O        6.05690000      14.73770000      17.66350000      -0.00601798      -0.00090683       0.00042675
H        5.03054000      14.18630000      16.25300000      -0.00093736      -0.00175270       0.00165264
H        6.69283000      13.17580000      18.35020000       0.00557769      -0.00384179      -0.00016432
O        9.67910000      16.84880000      22.90970000       0.00327842       0.00942526      -0.00560318
H        8.38296000      15.80240000      23.61810000      -0.00763307       0.00404260      -0.00397479
H       11.15620000      15.89480000      -0.11384800       0.00370246      -0.00339851       0.00765609
O       17.23070000      15.21590000       8.48376000      -0.00430124      -0.01249890       0.00896775
H       17.63670000      14.20850000      10.02630000       0.00314889       0.01117790      -0.01087870
H       15.55430000      14.61520000       8.07865000       0.00557046       0.00339867       0.00085341
O       13.55310000      20.51880000      10.02240000      -0.00970620      -0.00915188       0.00120761
H       13.45640000      18.80910000      10.67300000       0.00485066       0.00332793      -0.00080243
H       14.09790000      20.29920000       8.31762000       0.01027690      -0.00503688      -0.00275044
O        3.34978000      16.73970000      10.83910000      -0.00701248      -0.00549888      -0.01032060
H        3.06503000      17.94540000      12.16900000      -0.00615562       0.00741234       0.00316527
H        5.13265000      16.72300000      10.62410000       0.00854461       0.00359896       0.00157816
O        0.49845000      19.21730000       5.31105000       0.00455137       0.00404199      -0.00852395
H        2.10671000      20.12370000       5.48659000      -0.00334899      -0.00070794       0.00767186
H       23.26630000      19.15560000       7.00536000      -0.00615202      -0.00060545       0.00629172
O        2.92606000      10.94900000      22.87560000       0.00544544      -0.00667419      -0.00791382
H        1.81546000       9.81348000       0.32740900      -0.00454602      -0.00066578       0.00305209
H        2.84870000      10.31850000      21.14550000      -0.00669533       0.00667970       0.00534951
O        4.80224000       2.95926000      17.81010000       0.00269395       0.00103141      -0.00022406
H        3.31541000       2.08464000      18.41120000      -0.00149928      -0.00361368       0.00109411
H        5.33006000       1.98572000      16.34850000       0.00768129      -0.00526288       0.00666629
O       15.21070000       5.70453000       9.50577000      -0.00110410       0.00299633      -0.00003201
H       14.52420000       4.72509000      10.89190000      -0.00923076       0.00473350       0.00384856
H       16.94510000       6.03052000      10.01780000       0.00215504      -0.00763674       0.00455646
O        3.34895000       3.98582000       4.13121000       0.00146663      -0.00268668       0.00869421
H        4.49973000       4.90333000       3.00246000       0.00279712      -0.00715680      -0.00411229
H        2.17702000       3.14586000       3.05513000      -0.01131410      -0.00257852      -0.00508187
O       16.66400000       3.85226000       0.40853800       0.00050950       0.00064247      -0.01305570
H       15.20640000       3.87497000       1.50163000       0.00261379       0.00343908       0.00328363
H       16.53730000       2.33574000      -0.57540800      -0.00615634      -0.00261033       0.00909318
O        2.19399000       1.98370000      11.63650000      -0.00768458      -0.00295785      -0.00984819
H        3.92944000       2.02888000      11.13410000       0.00656243       0.00354859      -0.00485187
H        1.21234000       1.55977000      10.13550000       0.00501840       0.00664772       0.00418370
O       13.29990000       6.50648000       4.19679000       0.01514060       0.02391640      -0.03999540
H       14.34780000       6.25569000       5.58078000       0.01804160      -0.00688663       0.02390800
H       11.79920000       5.73507000       4.61070000      -0.03821580      -0.02101780       0.00851347
O       23.41400000       9.49272000      18.51690000      -0.00679195      -0.00121963       0.00485783
H        0.61796700       8.52270000      17.06840000       0.00580841      -0.00287607      -0.00302208
H       21.92680000       8.61013000      19.09940000       0.00844355      -0.00928568       0.00093786
O       15.50860000      11.65170000      20.22530000       0.00413111      -0.00352884       0.00689736
H       15.68900000      10.86880000      21.88860000      -0.00365968       0.00879185      -0.00309711
H       17.17190000      12.38600000      19.94640000      -0.00447059      -0.00672515      -0.01125500
O       19.07480000      12.55990000      12.47230000      -0.00547224      -0.01113470       0.00308265
H       20.24590000      11.41400000      11.62840000      -0.00325178       0.00341658       0.00032051
H       17.81410000      11.42800000      13.21030000      -0.00261575       0.00530643      -0.00286829
O       13.34740000      22.50770000      14.79010000      -0.01824530       0.00278624      -0.00036065
H       14.72320000      22.25040000      15.90570000       0.00853514      -0.00147150       0.00935653
H       13.91350000      22.25420000      13.10030000       0.00457870       0.00016411      -0.00569510
O        8.93939000      18.86770000       7.85475000       0.01068580       0.00333772       0.00415717
H        8.42616000      17.44180000       8.90656000      -0.00182514       0.00754020      -0.01083220
H       10.32650000      19.61050000       8.81452000      -0.00994628       0.00241779      -0.00199959
O        2.17209000       8.68501000       6.08374000      -0.01996400       0.00681859       0.00314781
H        1.72539000       7.16678000       5.21802000       0.00045535      -0.01188430      -0.00117252
H        3.94128000       8.83937000       5.82135000       0.01204330       0.00425758       0.00562466
O        8.49684000      14.02010000       9.05500000      -0.00643346       0.00341024       0.00155586
H        8.81022000      13.44580000      10.74140000       0.00118257      -0.00125310       0.00647027
H       10.14720000      14.37110000       8.41359000       0.00634345      -0.01004910      -0.00374146
O        6.55089000       6.12314000       1.04270000      -0.00609213       0.00383753      -0.00033767
H        7.15623000       7.51090000       2.04366000       0.00741485       0.00382102       0.00117298
H        7.88490000       4.90799000      24.27270000       0.00781005      -0.00062163      -0.00274737
O       18.65100000       6.94244000       5.35044000       0.00187605      -0.00625393      -0.00916240
H       17.72300000       7.01897000       6.88085000      -0.00150759      -0.00003932       0.00504203
H       19.82760000       8.28082000       5.45110000       0.01101190       0.01103160       0.00460454
O        6.99275000      22.58060000      14.64590000       0.00628750       0.00497916       0.00600853
H        5.83468000      21.60060000      13.67030000      -0.00008430      -0.00528739       0.00225897