192
Lattice="11.74456429 0.0 0.0 -5.3e-07 11.74456429 0.0 -5.3e-07 -5.3e-07 11.74456429" Properties=species:S:1:pos:R:3:force:R:3:forces:R:3 TotEnergy=-30010.46073064 cutoff=-1.0 nneightol=1.2 energy=-30010.46073064 pbc="T T T"
O        5.73416425       3.02709473       1.80318722      -0.80332582      -1.21376647       0.20230778      -0.80332582      -1.21376647       0.20230778
H        5.56943138       2.10076473       1.36991809       0.50217557       1.53231589       1.34795235       0.50217557       1.53231589       1.34795235
H        5.56662674       2.96533975       2.79956970       0.54751646      -0.28190194      -1.62429968       0.54751646      -0.28190194      -1.62429968
O        1.78772995      10.85151954       1.15475463      -2.83291366       2.12456440      -0.92718615      -2.83291366       2.12456440      -0.92718615
H        1.27361313      11.62702874       0.64046847       1.81789348      -2.16291498       1.69135406       1.81789348      -2.16291498       1.69135406
H        2.16766331      10.15956742       0.55739294      -0.13023513       0.45973025      -0.26124261      -0.13023513       0.45973025      -0.26124261
O        7.52468826       9.97186826      10.15051849      -1.51298119       3.37315904       2.50257830      -1.51298119       3.37315904       2.50257830
H        8.17832795       9.32362618      10.34398568       0.48150749      -0.47552762       0.31697745       0.48150749      -0.47552762       0.31697745
H        7.43679192      10.62175079      11.03466777       1.05936657      -2.82762747      -2.99742314       1.05936657      -2.82762747      -2.99742314
O        7.91178138       4.58707210       0.75474958       1.34499558       1.23814567      -2.36786791       1.34499558       1.23814567      -2.36786791
H        8.06085060       4.79654690       1.63976671       0.38014483       0.68880373       2.57828701       0.38014483       0.68880373       2.57828701
H        7.13320296       4.09945647       0.81464715      -2.16483817      -1.83566495       0.07202740      -2.16483817      -1.83566495       0.07202740
O        8.92351529       5.17808367       9.14508179       2.09709474      -3.02514477      -0.30432042       2.09709474      -3.02514477      -0.30432042
H        8.62775815       5.97546906       9.42279399      -2.76871835       4.09653383       0.85838856      -2.76871835       4.09653383       0.85838856
H        9.79237135       5.33770468       9.55709917       0.94460280      -1.16752260      -0.52726131       0.94460280      -1.16752260      -0.52726131
O       11.39392618       4.75242940      10.31763265      -1.23014440       0.11996563      -0.73341752      -1.23014440       0.11996563      -0.73341752
H       11.04689177       4.60206369      11.18738831      -0.18260439      -0.43417400       1.22912110      -0.18260439      -0.43417400       1.22912110
H        0.40332564       5.30748866      10.49062068       1.23808911       1.01265991      -0.11816894       1.23808911       1.01265991      -0.11816894
O        0.06869249       6.49660277       7.03350597      -8.74972181       3.31707299      -1.29926594      -8.74972181       3.31707299      -1.29926594
H       11.62972754       7.37731240       6.49459190       0.80802065      -2.94173304       0.93328481       0.80802065      -2.94173304       0.93328481
H        0.92074189       6.41346903       7.01763065       7.99458876      -0.50270573       0.52857257       7.99458876      -0.50270573       0.52857257
O        2.58803640       5.05946330       5.42406640      -2.78970884      -0.38920951      -3.53641896      -2.78970884      -0.38920951      -3.53641896
H        2.09149884       4.27517505       5.74982789       0.69823968       0.18291549       0.51624670       0.69823968       0.18291549       0.51624670
H        2.05534545       5.27435688       4.54993444       1.81884479      -0.35324080       2.29502341       1.81884479      -0.35324080       2.29502341
O        3.93554912       4.81396212       0.78823062      -4.93885299     -11.15966840      12.97270764      -4.93885299     -11.15966840      12.97270764
H        4.29762275       5.26709127       0.27274428       7.51579789      11.72099169     -13.81314990       7.51579789      11.72099169     -13.81314990
H        4.79081062       4.49826558       1.22479124      -1.65517863      -0.69692327       0.36172493      -1.65517863      -0.69692327       0.36172493
O        4.09431816       7.33063897       3.19968058      -1.06004534      -1.11637307      -0.28933963      -1.06004534      -1.11637307      -0.28933963
H        3.38943824       6.58815043       3.16480781       1.14148247       1.68970855      -0.61438571       1.14148247       1.68970855      -0.61438571
H        4.19910054       7.70582561       2.28520416       0.06644142      -0.21912537       1.05278969       0.06644142      -0.21912537       1.05278969
O        4.01414781       0.34585435      10.69001465       0.27125860      -3.90564997       1.86140169       0.27125860      -3.90564997       1.86140169
H        3.97934383      11.01133106      10.83765510      -0.38882539       3.49365637       0.06856361      -0.38882539       3.49365637       0.06856361
H        3.76050259       0.40037812       9.77321514      -0.24997758       0.45197272      -1.37139567      -0.24997758       0.45197272      -1.37139567
O        9.40067438       2.29813725       7.12410111      -2.25397318      -0.18400924      -3.24547291      -2.25397318      -0.18400924      -3.24547291
H        8.77407565       2.12047129       7.78176254      -1.42089456      -0.29561004       1.47685719      -1.42089456      -0.29561004       1.47685719
H       10.18867217       2.35986048       7.56548782       3.33147631       0.45038583       1.81095150       3.33147631       0.45038583       1.81095150
O       10.91142240      11.36201679       9.39247214       0.01736163       0.75490165       5.37813114       0.01736163       0.75490165       5.37813114
H       10.21386100       0.09946732       9.94308102       1.27966899      -0.25601504      -1.75074140       1.27966899      -0.25601504      -1.75074140
H       10.90565437      11.26390734       8.49001332      -1.04485012       0.02427019      -3.42446798      -1.04485012       0.02427019      -3.42446798
O        9.59271279       7.85595319       8.22637724       1.68824817      -3.33631513      -2.48705912       1.68824817      -3.33631513      -2.48705912
H       10.24471203       7.11245921       7.84028954      -2.08559676       2.31028034       1.60193623      -2.08559676       2.31028034       1.60193623
H       10.10252212       8.20510431       8.96706658       0.16744722       0.53774112       0.59653711       0.16744722       0.53774112       0.59653711
O        8.17668750      11.46557677       0.59883281      -0.66836860       3.34592077      -5.23774890      -0.66836860       3.34592077      -5.23774890
H        7.40086079       0.24360726       0.81692790      -0.70252828       0.12888581      -0.06194919      -0.70252828       0.12888581      -0.06194919
H        8.35316810      11.04541007       1.33745836       1.62912822      -3.53077282       5.68080143       1.62912822      -3.53077282       5.68080143
O        0.94004098      10.15162976       3.54788448      -1.08457367      -1.07225808      -2.11326183      -1.08457367      -1.07225808      -2.11326183
H        0.69010529       9.19133188       3.77189578       0.19180122       1.74153685      -0.34616204       0.19180122       1.74153685      -0.34616204
H        0.93777081      10.30122816       2.50966525       1.29074016      -1.02193131       1.68592389       1.29074016      -1.02193131       1.68592389
O        2.27424490       5.50915810       2.47661814       3.42541929      -4.02492345       3.71742464       3.42541929      -4.02492345       3.71742464
H        2.87039477       5.20416152       1.76153568       0.28323480      -0.31793287       0.44400075       0.28323480      -0.31793287       0.44400075
H        1.75867812       6.03341396       2.01906506      -5.01571870       4.50292756      -3.15397248      -5.01571870       4.50292756      -3.15397248
O        8.94351819       9.24398501       5.88873691      -1.92119527      -4.43389344      -2.57106221      -1.92119527      -4.43389344      -2.57106221
H        9.09221699       8.40449828       6.46427004      -0.54337184       2.43464461      -0.54531559      -0.54337184       2.43464461      -0.54531559
H        8.36787922       8.80270414       5.00977886       2.04374948       1.37647617       3.10278181       2.04374948       1.37647617       3.10278181
O        2.82171576       2.69312570      11.50923389       0.69614166      -0.37589891       1.50966961       0.69614166      -0.37589891       1.50966961
H        3.43897452       3.14968921       0.41529298      -1.06053899      -1.03034396      -1.56750915      -1.06053899      -1.03034396      -1.56750915
H        2.93838346       1.70842216      11.51627195       0.70775276       1.01310728      -0.29180943       0.70775276       1.01310728      -0.29180943
O        8.16112969       2.63468866       9.79782188      -1.27589975       2.29413381       1.11429562      -1.27589975       2.29413381       1.11429562
H        8.54928117       3.61930224       9.73373852      -1.52802215      -2.32642687      -0.06867109      -1.52802215      -2.32642687      -0.06867109
H        7.16627653       2.73929112      10.09193857       2.77315094       0.05309380      -1.14957630       2.77315094       0.05309380      -1.14957630
O        1.59972916       8.97754429       9.43268960      -4.27687101       0.84039598       2.26111056      -4.27687101       0.84039598       2.26111056
H        1.59251119       9.12142757       8.50784659       0.80233851       0.43452315      -2.11537014       0.80233851       0.43452315      -2.11537014
H        0.58284107       9.31288388       9.64240253       3.61139233      -1.36863431       0.04291017       3.61139233      -1.36863431       0.04291017
O        5.26826605       3.30655850       9.49391541      -0.84340417       0.50978295       1.64621063      -0.84340417       0.50978295       1.64621063
H        4.78704288       2.59503212       9.98054677       0.22770823       1.03334701      -0.67504833       0.22770823       1.03334701      -0.67504833
H        4.89323287       4.20901732       9.82787914       0.44176698      -1.60587001      -1.14998768       0.44176698      -1.60587001      -1.14998768
O        7.36117250       0.04299829       7.68322975      -0.43534950      -0.03071646       3.23220087      -0.43534950      -0.03071646       3.23220087
H        7.04043819       0.88966860       7.30592640      -0.03364443      -0.06154707       0.77135157      -0.03364443      -0.06154707       0.77135157
H        7.21231495       0.07133097       8.74782846       0.53084542      -0.30424894      -4.25693468       0.53084542      -0.30424894      -4.25693468
O        4.18004487       0.62351363       4.09110076      -1.56364221       2.67147408       0.69046980      -1.56364221       2.67147408       0.69046980
H        4.80862272       1.37200834       4.08969844       0.44022637      -0.29248306       0.30456519       0.44022637      -0.29248306       0.30456519
H        3.28940787       1.15635275       4.10035607       1.67807174      -2.07241729      -0.35558102       1.67807174      -2.07241729      -0.35558102
O        2.70842421       6.37716748       7.53125005       2.06494566       5.11524611      -0.69604396       2.06494566       5.11524611      -0.69604396
H        2.64632527       5.94334800       6.65921893       0.39734911      -0.66881083      -0.10087981       0.39734911      -0.66881083      -0.10087981
H        3.09797272       7.37493110       7.16849908      -1.55386174      -3.75355378       1.65329144      -1.55386174      -3.75355378       1.65329144
O        6.41182858       2.43882959       7.01329140      -4.92870742       2.02800405       0.61801097      -4.92870742       2.02800405       0.61801097
H        5.72035272       2.64918282       6.21809681       2.70379285      -1.03493595       1.32465301       2.70379285      -1.03493595       1.32465301
H        5.74453612       2.77554505       7.76408803       2.33632562      -1.16785171      -1.14451637       2.33632562      -1.16785171      -1.14451637
O       10.57301357       4.37816352       1.12879320       4.89504653      -1.30601766       2.06174721       4.89504653      -1.30601766       2.06174721
H       10.93983922       3.52935799       1.61142927      -2.07324004       1.97823263      -1.66711884      -2.07324004       1.97823263      -1.66711884
H        9.71802196       4.32374294       0.82312457      -3.01426901      -1.27858398      -0.62062321      -3.01426901      -1.27858398      -0.62062321
O        4.08049605      10.52136588       2.32719437       0.42891300       2.23963156       1.86107773       0.42891300       2.23963156       1.86107773
H        3.15932553      10.71626184       1.93731777       1.63434241       0.18014641       1.02641531       1.63434241       0.18014641       1.02641531
H        4.27975773      11.25147167       3.16363303      -1.47402383      -2.26965177      -2.92434724      -1.47402383      -2.26965177      -2.92434724
O        1.84757460       2.91355447       6.97180391      -2.90159297      -1.25618967      -2.57119591      -2.90159297      -1.25618967      -2.57119591
H        1.40897666       2.99356606       7.80562844      -0.14525654       0.44582161       1.66832212      -0.14525654       0.44582161       1.66832212
H        0.95316987       2.61135724       6.50289998       2.62213975       0.34147955       0.65385215       2.62213975       0.34147955       0.65385215
O        5.97425195       7.07160673       6.51708193      -1.32986207       4.64477533       0.74215927      -1.32986207       4.64477533       0.74215927
H        6.45172854       6.31562417       6.45929578       1.62818205      -4.29121777      -0.25735973       1.62818205      -4.29121777      -0.25735973
H        5.04161945       6.94539796       6.38552848      -0.03046757      -0.33969006      -0.12541842      -0.03046757      -0.33969006      -0.12541842
O        3.26609762       9.55064320      11.51695988      -2.28801973       2.61571714      -1.59542105      -2.28801973       2.61571714      -1.59542105
H        2.90240470       9.12894189      10.76187692      -0.52591919      -0.96484767      -1.23090544      -0.52591919      -0.96484767      -1.23090544
H        3.99413433       9.15122025       0.17271762       2.46309130      -2.04713306       1.18471300       2.46309130      -2.04713306       1.18471300
O       10.53697661       4.56069791       5.76512111       1.37467126       5.21414617      -0.75573469       1.37467126       5.21414617      -0.75573469
H       10.35298169       3.68800002       5.75575468      -0.26204891      -4.34917044       0.71721442      -0.26204891      -4.34917044       0.71721442
H       11.27576091       4.91570702       6.31964591      -1.20071041      -0.75218657      -0.31628942      -1.20071041      -0.75218657      -0.31628942
O        4.63525898      10.81807554       6.19613595       6.71520773      -1.10373867       4.35700202       6.71520773      -1.10373867       4.35700202
H        4.35573170      11.34174931       5.54381921      -2.37777180       3.55238551      -4.56307595      -2.37777180       3.55238551      -4.56307595
H        5.67410263      11.23263297       6.27461293      -3.69088571      -2.18111325      -0.04988095      -3.69088571      -2.18111325      -0.04988095
O        0.14165280       7.33720077       1.35500587      -5.25636369      -0.09894068       6.15964372      -5.25636369      -0.09894068       6.15964372
H        0.43427986       7.46266869       0.56089609       3.84631405       0.76780345      -7.44961769       3.84631405       0.76780345      -7.44961769
H       10.92671562       7.65920510       1.13098928       2.25378806      -0.78840313       1.73881663       2.25378806      -0.78840313       1.73881663
O       10.27603932       2.10768108       2.86506067       1.27164715      -1.00033404       0.95626533       1.27164715      -1.00033404       0.95626533
H       11.01111939       2.17232007       3.54679437      -1.62994068       0.20511080      -0.66830175      -1.62994068       0.20511080      -0.66830175
H       10.25354929       1.09798979       2.87938020      -0.22944269       0.78903562      -0.44897275      -0.22944269       0.78903562      -0.44897275
O        5.69627516       0.40138197       0.90041090       2.59899982       0.43527083       4.94188690       2.59899982       0.43527083       4.94188690
H        5.24481821       0.44575031       0.13631182      -2.71563535       0.20740525      -4.72132737      -2.71563535       0.20740525      -4.72132737
H        5.15967359      11.54675256       1.48204015      -0.21494990      -0.23595890      -0.06999417      -0.21494990      -0.23595890      -0.06999417
O        6.15025629       7.53315509       9.28182118       3.37681515      -8.71825151      -0.73325811       3.37681515      -8.71825151      -0.73325811
H        5.88831357       8.32623298       9.17037646      -3.12216279       9.38792108      -0.76454843      -3.12216279       9.38792108      -0.76454843
H        6.54803880       7.35413444       8.40211699      -0.57476501      -0.20697279       0.55008756      -0.57476501      -0.20697279       0.55008756
O       11.51516068       7.99909562       4.70859765      -1.85752447      -3.33904050      -2.28857509      -1.85752447      -3.33904050      -2.28857509
H       10.55803786       8.11683755       4.90491181       0.94879370       0.68445342      -0.18751828       0.94879370       0.68445342      -0.18751828
H       11.33058367       7.11780390       3.97989417       0.73715590       2.85155930       2.24620330       0.73715590       2.85155930       2.24620330
O        4.32177969       9.39263089       8.51430256      10.95624271     -10.19283070     -11.15277785      10.95624271     -10.19283070     -11.15277785
H        4.15839623       9.72273163       7.58681366       0.74426243      -1.00007179       1.44277979       0.74426243      -1.00007179       1.44277979
H        3.83315862       9.85920643       8.89837937     -11.80157006      10.92358969       9.90425006     -11.80157006      10.92358969       9.90425006
O        7.32079628       7.68735733       4.30241710      11.26302676       2.57085652     -17.99638648      11.26302676       2.57085652     -17.99638648
H        7.49129717       6.77442081       3.96804589       0.55662845      -0.25286339       0.13183898       0.55662845      -0.25286339       0.13183898
H        6.92412504       7.59215835       4.94862185     -11.68489339      -2.23414997      18.08807202     -11.68489339      -2.23414997      18.08807202
O       10.60936805       5.82587066       3.33454140      -3.62983743       8.74339690      19.17816842      -3.62983743       8.74339690      19.17816842
H       10.85887510       5.24453774       3.99905568       0.76538661      -2.26595452       2.00967722       0.76538661      -2.26595452       2.00967722
H       10.70514912       5.60689713       2.61041530       3.34908323      -6.50093198     -20.65115353       3.34908323      -6.50093198     -20.65115353
O        8.16710939       1.89280867       4.64662570      -2.78388786      -0.72861469      -4.24535957      -2.78388786      -0.72861469      -4.24535957
H        8.53457004       2.07518430       5.44433389       2.39779042       1.05826614       3.94904505       2.39779042       1.05826614       3.94904505
H        8.71888247       2.16570536       3.89810983       0.79682092       0.07677469       0.24100186       0.79682092       0.07677469       0.24100186
O        7.35476945       9.37220465       2.30818103      -1.57493964       0.21925032       2.66968974      -1.57493964       0.21925032       2.66968974
H        7.02816128      10.06029377       3.00869524       1.12488857      -1.41697105      -1.75353362       1.12488857      -1.41697105      -1.75353362
H        7.24983361       8.55541962       2.92457723       0.16987640       1.65735893      -1.30613079       0.16987640       1.65735893      -1.30613079
O        7.59850848       4.79108579       6.60704206      -0.18279825      -1.17206832       0.89977304      -0.18279825      -1.17206832       0.89977304
H        7.35064187       3.91050316       7.03265929      -0.45973231       0.75343098      -1.50952563      -0.45973231       0.75343098      -1.50952563
H        8.26643595       4.99101423       7.26121092       0.89534560       0.76599854      -0.01246265       0.89534560       0.76599854      -0.01246265
O       10.40399437      11.10430749       6.79294201       2.81111071      -0.62073634      -1.02525317       2.81111071      -0.62073634      -1.02525317
H        9.63001979      11.47674241       7.07319426      -3.06936775       2.63521124       1.66147784      -3.06936775       2.63521124       1.66147784
H        9.93990596      10.35631551       6.42130085       0.40481302      -1.41940332      -0.75826980       0.40481302      -1.41940332      -0.75826980
O        3.49465984       8.56023514       5.57334729       4.08231048       1.30895386      -3.78476698       4.08231048       1.30895386      -3.78476698
H        4.21974903       9.43364212       5.51672533      -2.68191276      -2.97917345       0.99539238      -2.68191276      -2.97917345       0.99539238
H        3.65141800       8.24495136       4.57004847      -0.61115641       0.20748547       2.30058214      -0.61115641       0.20748547       2.30058214
O       10.64836841       8.95923475      10.32953914      -2.39696252       0.22372661       2.32516189      -2.39696252       0.22372661       2.32516189
H       10.35155291       9.90349857      10.16999221       0.96257996      -1.01845003      -0.24083011       0.96257996      -1.01845003      -0.24083011
H       10.06870769       8.69586326      11.18304906       2.34525763       0.93941432      -2.29535252       2.34525763       0.93941432      -2.29535252
O       11.45213567       2.78041877       8.81582773       0.13917074       0.55494695      -5.11691219       0.13917074       0.55494695      -5.11691219
H       11.40535641       3.52377517       9.35537681      -0.02186929       2.41837981       2.07430962      -0.02186929       2.41837981       2.07430962
H       11.49658656       2.03804136       9.30441705       0.27983632      -3.85064379       2.72189342       0.27983632      -3.85064379       2.72189342
O        5.72252235       2.78391663       4.58865434       2.00202048       0.11734310      -0.87511102       2.00202048       0.11734310      -0.87511102
H        5.58377208       3.78623648       4.59301476       0.76167394      -0.88388363      -0.15393659       0.76167394      -0.88388363      -0.15393659
H        6.80527184       2.57167953       4.53785333      -2.41439460       0.27077164       0.34678425      -2.41439460       0.27077164       0.34678425
O        3.49103497       0.47779834       8.23103400       1.10622750      -0.34709021      -2.37964357       1.10622750      -0.34709021      -2.37964357
H        4.13096897      -0.02426013       7.57813515      -2.14205305       1.52066879       1.47369988      -2.14205305       1.52066879       1.47369988
H        2.91503087       1.07665866       7.70577270       0.67948091      -0.68213429       0.43600925       0.67948091      -0.68213429       0.43600925
O        4.20392663       5.85068907       9.77697230      -3.57610651      -0.45028247      -2.74477110      -3.57610651      -0.45028247      -2.74477110
H        3.54920742       6.04214538       8.83884694       1.55419598      -1.34864655       2.76174038       1.55419598      -1.34864655       2.76174038
H        4.72216575       6.61011128       9.59234237       1.78331728       1.13481303       0.09583633       1.78331728       1.13481303       0.09583633
O        1.45781442       6.56317326      10.70033361       2.20226315       0.63186922      -0.26552967       2.20226315       0.63186922      -0.26552967
H        2.44013666       6.43590615      10.96735643      -2.54561343       0.39446176      -1.41605060      -2.54561343       0.39446176      -1.41605060
H        1.41492990       7.19966761       9.90556236       0.60172046      -0.81249951       1.68488516       0.60172046      -0.81249951       1.68488516
O        7.98681871       5.23825112       3.84425018       3.13432925      -1.45225173       2.74526989       3.13432925      -1.45225173       2.74526989
H        9.01755008       5.30341400       3.65056603      -2.77410739       0.24112270       0.40572422      -2.77410739       0.24112270       0.40572422
H        8.05524133       4.91626266       4.90003809      -0.71303381       1.02736662      -3.07754386      -0.71303381       1.02736662      -3.07754386
O       10.04494764       1.29552635      11.26724116       1.73607583       6.18658888      -7.11521999       1.73607583       6.18658888      -7.11521999
H        9.25266352       1.89236945      10.78695992       2.14781232      -1.66582814       1.26821730       2.14781232      -1.66582814       1.26821730
H        9.64420173       0.85762163       0.14036796      -3.95195554      -4.15347862       5.70846650      -3.95195554      -4.15347862       5.70846650
O        1.65347769       0.84323330       3.65143388       1.42823248      18.52258849      -1.58570742       1.42823248      18.52258849      -1.58570742
H        1.30082871       1.18126641       2.78746212       0.06763904      -0.72436723       0.47733511       0.06763904      -0.72436723       0.47733511
H        1.56093518      11.80917154       3.71966599      -1.83660597     -17.48993054       1.07095196      -1.83660597     -17.48993054       1.07095196
O        9.54164719       8.40767335       0.89833123      11.90981352      -1.53191480      -0.18516161      11.90981352      -1.53191480      -0.18516161
H        9.00596110       8.92785455       1.26700370      -5.91831996       7.89755532       6.08965828      -5.91831996       7.89755532       6.08965828
H        8.94113689       7.98808874       0.49614438      -7.23364501      -6.68635995      -5.64295479      -7.23364501      -6.68635995      -5.64295479
O        5.09521981       8.37512895       0.81392217       4.28942314      -0.28139235      -0.78329178       4.28942314      -0.28139235      -0.78329178
H        5.86312473       9.13169361       1.08096087      -2.32849404      -3.31964409      -0.61849948      -2.32849404      -3.31964409      -0.61849948
H        5.54545965       7.65089702       0.19278931      -0.77571731       2.85232035       2.11019708      -0.77571731       2.85232035       2.11019708
O        7.30703767      11.10160869       4.63375611      -0.88771457      -3.55612904       3.03358828      -0.88771457      -3.55612904       3.03358828
H        7.63533921      10.74907083       5.55297397      -0.86701719       0.61395891      -2.54795314      -0.86701719       0.61395891      -2.54795314
H        7.79843163       0.12321944       4.54375365       1.37331372       2.81788813      -0.43847031       1.37331372       2.81788813      -0.43847031
O       10.24857503      11.03916578       3.08253662       2.08557619      -0.83679644       1.42396959       2.08557619      -0.83679644       1.42396959
H       11.34180222      10.69340139       3.15046181      -3.53841414       0.81605278       0.79711403      -3.53841414       0.81605278       0.79711403
H        9.89365587      10.83162248       3.99602349       0.78547722       0.29104324      -1.77379392       0.78547722       0.29104324      -1.77379392
O       11.39159780       1.59286574       5.25942350      10.18845982      14.10111348      -9.35825055      10.18845982      14.10111348      -9.35825055
H       11.14796461       0.93367498       5.59827154      -6.44107669     -15.49336594       8.38652775      -6.44107669     -15.49336594       8.38652775
H        0.63682773       1.17983234       4.75863135      -3.26021047       1.80274968       1.16045207      -3.26021047       1.80274968       1.16045207
O        7.51865564       7.18246935      11.26967537       2.85097309      -4.61661661       5.64130928       2.85097309      -4.61661661       5.64130928
H        7.03461724       7.13050415      10.50220966      -1.92595181       0.25077051      -3.35841633      -1.92595181       0.25077051      -3.35841633
H        7.61030913       6.12718416      11.64062859      -0.25806164       3.92457329      -1.28720232      -0.25806164       3.92457329      -1.28720232
O        1.75378853       9.68542464       6.78468684      -3.15344283      -0.46783745       0.39065653      -3.15344283      -0.46783745       0.39065653
H        2.25816320       9.04199807       6.22910369      -0.18277459       0.61772815      -0.22779204      -0.18277459       0.61772815      -0.22779204
H        0.77725019       9.49312164       6.62916166       2.16249332       0.72466548       0.07833123       2.16249332       0.72466548       0.07833123
O        0.79380286       1.53270887       1.01780886      -0.44967929       0.87239079      -0.65009834      -0.44967929       0.87239079      -0.65009834
H       -0.05250973       1.65674801       0.40803849       2.46039678       0.24974001       1.38686857       2.46039678       0.24974001       1.38686857
H        1.63024681       2.14220989       0.87222163      -2.73531972      -0.92775179      -1.05769535      -2.73531972      -0.92775179      -1.05769535
O        5.12024460       5.20156326       4.72964303      16.37304324      -0.02624222       3.03762491      16.37304324      -0.02624222       3.03762491