192
Lattice="23.46511 0.0 0.0 -1e-06 23.46511 0.0 -1e-06 -1e-06 23.46511" Properties=species:S:1:pos:R:3:forces:R:3 energy=-1103.24236 free_energy=-1103.24236 stress="0.0 0.0 0.0 0.0 0.0 0.0 0.0 0.0 0.0" pbc="T T T"
O       11.72590000      14.59020000      25.33440000      -0.04213780       0.03788820       0.00314949
H       12.69400000      16.13880000      24.72010000      -0.03709700      -0.03453660       0.01566490
H        9.70021000      15.03790000      25.76530000       0.07676920      -0.00101183      -0.02270490
O       10.68010000       3.41217000       4.43292000      -0.01918440       0.01516070       0.03966070
H       10.14500000       3.90822000       6.40047000       0.01092440      -0.00643783      -0.08715890
H        9.97507000       4.53606000       3.00742000       0.01153240      -0.01693960       0.04267200
O       -1.28237000      20.66930000       0.33214000       0.01567000       0.05712230      -0.02019150
H       -2.00088000      19.44320000       1.53560000      -0.00506084       0.01237370       0.00343864
H       -1.61629000      22.60300000       0.50498200      -0.00202273      -0.05619540       0.01712140
O        9.21461000       6.25088000      23.95300000       0.00599846       0.05166120      -0.03366400
H       10.61010000       7.50972000      23.36340000      -0.01593480      -0.02774600       0.02653910
H        7.77751000       7.22426000      23.30050000       0.00486787      -0.00902720       0.01408240
O       16.89510000      17.32880000      12.23730000       0.05170700      -0.02194660      -0.02248800
H       15.93950000      18.69190000      12.71730000      -0.03782100       0.04353750       0.01345500
H       16.03910000      15.83260000      12.65280000      -0.01722850      -0.01663750       0.01103250
O       15.25830000       4.21441000      23.71510000       0.04142680       0.03948840      -0.01135030
H       15.24090000       5.27627000      25.30160000      -0.00539283      -0.01917710      -0.01818320
H       16.45920000       5.26151000      22.56030000      -0.03854420      -0.03085900       0.02407630
O       -1.30626000       2.83758000       2.04359000       0.01136840      -0.00221514       0.02389140
H        0.66180900       3.16340000       2.17940000      -0.05991730      -0.01178960       0.01321000
H       -2.32540000       2.59499000      27.16330000       0.04748290       0.00917001      -0.03971290
O       17.02160000      13.54400000      24.47180000       0.02518450      -0.02448530       0.14475700
H       16.12030000      14.19520000      23.27900000      -0.12971300       0.08050960      -0.08030350
H       18.02710000      13.22310000      23.18830000       0.11190300      -0.05521110      -0.06982400
O        3.32584000      -3.92494000      12.79700000       0.09440630       0.04430490       0.02348960
H        1.82988000      -4.43370000      12.28330000      -0.09406740      -0.04020210      -0.03940810
H        4.64895000      -4.28265000      11.56080000      -0.01220220      -0.00426108       0.00881013
O       14.40910000      14.44540000       7.19708000       0.00196307       0.00485355       0.04440960
H       14.67070000      14.01730000       5.49168000       0.00602919      -0.00454622      -0.01969080
H       16.00710000      14.37760000       8.13414000      -0.01060860      -0.00423506      -0.02375250
O        3.75610000      27.21300000      25.44970000       0.01176800       0.02531920      -0.01743260
H        4.44970000      26.69580000      23.79300000      -0.00347412       0.01222600       0.01867440
H        3.88507000      29.10880000      25.48980000      -0.00204369      -0.04344080      -0.00249104
O        6.33232000      23.71130000       5.78383000      -0.06030500       0.03115610      -0.02725940
H        5.37179000      24.93170000       4.61108000       0.02679260      -0.02784140       0.02723370
H        7.97406000      23.72040000       5.09215000       0.02474510       0.00464544      -0.00411986
O       -7.91350000       7.17074000       4.53825000       0.03715600      -0.11890900       0.03878670
H       14.87290000       8.59066000       4.13620000      -0.07679390       0.12662000      -0.04273920
H       17.28870000       7.59906000       4.43910000       0.03092210      -0.00646912       0.00760408
O       20.41660000      13.79190000      -4.33534000      -0.03436170       0.01867290      -0.00721757
H       21.05850000      12.51080000      -5.42323000       0.01980580      -0.01569820      -0.00260503
H       21.84030000      14.39800000      20.04890000       0.01447480      -0.00774649       0.01448960
O       22.80960000      21.61490000      18.74880000       0.01378850      -0.00550753       0.01631220
H       22.71450000      21.17440000      20.55510000      -0.01079020      -0.00046230      -0.00538722
H       21.85000000      20.34420000      17.86440000      -0.01087640      -0.00639023      -0.01061240
O        8.98915000      13.19460000      -3.69504000      -0.00333271       0.02891130      -0.01243590
H       10.16400000      12.88770000      -5.07210000      -0.00365554       0.00450278       0.00918226
H        8.67553000      15.14780000      -3.61800000       0.00495207      -0.03680630      -0.00443163
O       20.98600000      -5.85587000      15.62600000      -0.02636310       0.00636314      -0.02225450
H       19.56720000      -5.67808000      14.27500000       0.03067160      -0.01274290       0.04502720
H       20.57570000      16.29170000      16.90780000      -0.00551157       0.01105950      -0.01990460
O       21.05760000       5.96371000      15.94870000      -0.03731910       0.03515160      -0.06603020
H       20.52830000       6.14207000      14.00950000       0.00951880      -0.01669860       0.06232670
H       22.29070000       4.65530000      16.13840000       0.01694990      -0.01348610       0.00492640
O        3.86833000      20.17680000      17.62660000      -0.04625270       0.01545970       0.07870390
H       25.28400000      20.55190000      18.25220000       0.05661740       0.00115130      -0.01841630
H        3.63005000      19.59700000      15.99140000       0.00001293      -0.01341050      -0.04517500
O       14.41320000       1.51805000      17.35960000       0.01082310      -0.06007360      -0.06166080
H       14.25600000      -0.07967500      16.09070000       0.00851486       0.06545940       0.05073880
H       12.79200000       1.63252000      18.10010000      -0.01936080      -0.00200183       0.01485230
O        7.72766000      -5.89963000      11.33340000      -0.04505020      -0.05016100      -0.07506010
H        7.58128000      -7.25833000      12.50830000       0.00708592      -0.00118107       0.01474990
H        6.63355000      -6.84958000       9.82148000       0.04771280       0.04701540       0.05870780
O        7.95883000      17.99620000      -3.62068000      -0.03834940       0.01609720       0.05132390
H        6.06018000      18.56200000      -4.03137000       0.04836310      -0.00895325       0.00499903
H        8.28770000      18.24380000      -1.69376000      -0.00729733       0.00239964      -0.05543990
O       10.68270000       2.15780000      -1.98573000       0.03764100       0.01459630       0.03184100
H       12.40620000       2.70855000      -0.87998200      -0.07487850      -0.00169239      -0.04322190
H        9.23708000       3.39591000      -1.80029000       0.04654730      -0.02070010       0.00909640
O       13.05400000       9.56601000      23.69380000       0.02414920       0.02750170      -0.12166100
H       13.84460000       9.44964000      21.69430000      -0.02152440      -0.00845853       0.09023520
H       12.56990000      11.34490000      23.26220000      -0.00429093      -0.01556160       0.03175260
O       21.04910000       0.94958000       7.41578000      -0.04422760       0.04767200      -0.04386630
H       22.25190000       0.53906900       8.53359000       0.06158150      -0.02755300       0.04659980
H       19.98900000      -0.45730300       7.07104000      -0.00479829      -0.00774447       0.00670611
O        5.57103000      33.14880000      -1.92248000      -0.07342950       0.02061750       0.01618600
H        3.82399000      10.50520000      -1.42200000       0.05033570      -0.03536380      -0.01263060
H        6.35441000      34.55740000      -2.74233000       0.02419910       0.00841435      -0.00085035
O        1.95041000       8.70316000      10.85300000      -0.02227820      -0.01939150      -0.05701290
H        2.34472000      10.16730000      11.72090000       0.00553830       0.01782580       0.02532950
H        1.90968000       7.20275000      11.77990000       0.00784904      -0.00905317       0.02472360
O       -3.24413000       7.53540000       5.71945000       0.04896310       0.02174580      -0.09336050
H       -3.23415000       7.44859000       7.42897000       0.00709930      -0.00734481       0.07201930
H       -1.47696000       7.88626000       5.03540000      -0.04405960      -0.01150060       0.02320820
O       13.13510000      13.69420000      15.08940000       0.00356114       0.02604520       0.01668790
H       14.23950000      12.89350000      16.34660000      -0.00870592      -0.00452710      -0.00380117
H       12.80650000      12.63620000      13.68690000      -0.00536542      -0.02116680      -0.01379810
O        4.98406000      18.91840000       6.99830000      -0.01778870       0.00831659       0.00932082
H        4.92542000      20.51150000       5.97932000       0.01723200      -0.03000950       0.00692324
H        5.72812000      17.45420000       6.19452000      -0.00105276       0.01987260      -0.02079090
O        2.78353000       0.78483000       9.82078000       0.00566747       0.02387910      -0.01768150
H        2.97638000      -0.51062500      11.06510000       0.01124950      -0.01585830      -0.00565622
H        4.06140000       0.78408400       8.42455000      -0.01206660      -0.01359130       0.02975410
O        9.10588000      23.17640000      12.12870000      -0.01841740      -0.03320220       0.04583880
H        8.57859000      22.95240000      14.16740000       0.01129520       0.02010050      -0.06087300
H        8.38767000      21.61980000      11.36720000       0.01441900       0.02340820       0.00825649
O       11.99420000      18.81440000      -6.99620000      -0.01916130      -0.04235340       0.01002920
H       10.51740000      18.71850000      -5.88712000       0.00281834       0.02262100       0.00134729
H       11.94250000      16.95690000      -7.32866000       0.01943090       0.02350720      -0.01139240
O       20.44740000      -6.50342000       3.14934000       0.03818370      -0.07061080       0.02918770
H       19.29220000      -7.63251000      25.56520000       0.01450940       0.01415960       0.02669520
H       21.78380000      -7.84734000       4.17613000      -0.06202010       0.05512040      -0.04821040
O       16.93490000       6.68279000      18.82110000       0.03520610      -0.06060520      -0.01965320
H       15.88680000       5.11326000      18.32820000       0.03422890       0.03745010       0.00743134
H       18.93150000       6.23455000      18.18190000      -0.07455590       0.01359850       0.00496897
O       14.70690000      22.18790000      11.78590000      -0.06351800      -0.10286700       0.07953270
H       12.85670000      22.35240000      12.09240000       0.02225630      -0.00144562      -0.00639434
H       15.15800000      23.47360000      10.87630000       0.03685090       0.10200000      -0.07421060
O        6.95104000      10.65280000       5.25917000      -0.10403500      -0.03795700       0.12445000
H        7.06758000      10.42150000       7.35557000      -0.00520488       0.01475420      -0.09320710
H        8.43196000      11.07000000       4.63733000       0.10387200       0.02320750      -0.03496060
O        6.67128000      15.76880000       2.82903000      -0.01433650      -0.02559210       0.00848946
H        5.58331000      17.00510000       1.92554000       0.00228982      -0.02029340       0.01251260
H        5.72978000      14.17410000       3.25095000       0.01034600       0.03518160      -0.01288670
O       19.87540000      19.24910000       8.02886000      -0.03255680      -0.01556760      -0.06705830
H       19.00120000      18.52340000       6.28954000       0.03287860       0.02250750       0.06960250
H       18.74340000      19.13250000       9.46379000      -0.00418537      -0.00852364      -0.01145750
O       14.07730000       6.07035000       9.67797000      -0.00600299       0.02364040      -0.04251130
H       12.27320000       5.40577000       9.79103000       0.03970270       0.00989878      -0.02124510
H       14.60490000       6.66654000       7.77437000      -0.02888520      -0.02825940       0.05736850
O       11.82130000      10.90090000      10.81520000       0.02134080      -0.03899440       0.00743875
H       12.90160000       9.17759000      10.74020000      -0.02422710       0.05376210      -0.01098090
H       12.50130000      12.27040000       9.77673000       0.00597082      -0.01936700      -0.00603379
O       23.28220000      32.15710000      22.95130000       0.00830899       0.00634503      -0.04234700
H       22.82540000      30.97190000      24.20250000      -0.00738622      -0.01976960       0.00122893
H       23.14370000      31.40730000      21.22050000      -0.00079551       0.01034260       0.03872450
O        1.15038000      13.03060000       4.16736000       0.03155600      -0.04388860       0.01566350
H        2.13957000      11.26300000       4.12718000      -0.04594860       0.06344110       0.00810330
H        0.89382800      13.46890000       5.96364000       0.00894783      -0.00798210      -0.01898000
O       16.44750000      23.87670000       5.92361000      -0.08193000       0.00010241      -0.05341760
H       16.23310000      22.76230000       4.35680000       0.01926360       0.02051490       0.02902700
H       14.75640000      24.84290000       5.57173000       0.05138390      -0.01761070       0.01861630
O        0.98118000      14.22410000      22.28440000      -0.00316681       0.01213430       0.00124092
H        1.24728000      15.98760000      22.27270000       0.02558920       0.02905670      -0.02641270
H        0.26826200      14.47360000      23.91430000      -0.01126620      -0.03543230       0.02658880
O        7.06066000      23.96820000      16.55090000       0.02365740       0.01041090      -0.02348460
H        7.34327000      25.57540000      17.37200000      -0.00759811      -0.01503830       0.01604110
H        5.99608000      22.79090000      17.42940000      -0.01291580      -0.00299642       0.00903274
O        0.44348700      16.58680000       8.47263000       0.01104970       0.06199540      -0.04156530
H        1.75205000      17.71380000       7.59725000      -0.00636706      -0.03199850       0.02236700
H       -1.02339000      17.86080000       8.21024000       0.00538780      -0.03180510       0.01373610
O       -7.90346000      11.44930000      18.82540000      -0.01946550       0.06308720       0.01102420
H       15.64160000       9.77612000      18.35420000       0.01913480      -0.05765230      -0.01427100
H       -6.31071000      12.26030000      18.53460000       0.00737333      -0.00284728       0.01011090
O       25.75550000       7.92449000       5.14847000      -0.12625100      -0.02993640      -0.02303140
H       27.29990000       8.30686000       4.77230000       0.13504400       0.03186300      -0.02476440
H       25.63940000       7.80281000       6.87874000       0.00035234      -0.00051345       0.05583630
O        6.33939000      11.25520000      10.70320000      -0.01173870       0.01289140      -0.02696260
H        6.19821000      11.28140000      12.46390000      -0.02141820      -0.00519651       0.03574100
H        8.08340000      11.05800000      10.65550000       0.05120260      -0.00264841      -0.00892123
O       23.23760000      13.52510000      12.18560000       0.03824270      -0.01895170      -0.01820970
H       23.87070000      14.64300000      10.85440000       0.01467970      -0.00483087      -0.00002162
H       -1.68926000      14.40780000      12.42450000      -0.05066430       0.02456750       0.02974320
O       19.56890000      12.69440000       7.85265000      -0.04897290       0.09850650       0.04036370
H       20.67150000      13.10900000       9.19475000       0.01352790      -0.00755561       0.00587904
H       20.05490000      11.31380000       7.07175000       0.03372680      -0.09170300      -0.04848390
O       19.46650000       5.71436000      10.76330000       0.02376860      -0.08507790      -0.05732730
H       20.35730000       4.11265000       9.90697000       0.00761972       0.05088950       0.03261120
H       18.04860000       4.82408000       9.96419000      -0.02863770       0.03086710       0.02166620
O        9.48085000      20.57190000      24.65850000       0.02528280      -0.00998481       0.06523340
H       10.32640000      20.19360000      26.56310000      -0.03673120       0.01773420      -0.07259160
H        9.61245000      22.35360000      24.19190000       0.00850594      -0.00938491       0.00586026
O      -19.00880000       4.35826000      13.21610000       0.06000010      -0.06825360       0.02901010
H      -19.32980000       2.86415000      12.05130000      -0.00129367       0.02728630       0.00472335
H      -17.33040000       3.59498000      14.13940000      -0.06909300       0.03057870      -0.03295740
O       24.69670000       3.07203000      17.24680000       0.08812010       0.17800800      -0.12007700
H       25.90230000       3.20286000      15.37500000      -0.03476090      -0.00742346       0.07178480
H       24.26480000       1.63736000      17.79230000      -0.04392820      -0.17127700       0.04555670
O       15.20430000      -5.85305000      21.20010000       0.01942710      -0.01853340       0.02703430
H       16.42170000      -4.56435000      21.60850000      -0.00962772       0.00423740      -0.00488447
H       14.18750000      -5.36397000      19.83140000      -0.00924517       0.01475260      -0.02104520
O       28.75600000      11.25560000      15.80370000       0.08067450       0.10742400      -0.02382370
H       28.07980000      10.88660000      17.32200000      -0.03951870      -0.03488010       0.06199530
H       29.77280000      12.97060000      16.57110000      -0.03550210      -0.07291920      -0.03698190
O       27.28600000      19.56260000      24.46820000      -0.00671189       0.04254070      -0.02212720
H       25.70120000      -2.82061000      24.04020000       0.03772170      -0.03288390       0.01354560
H       28.88010000      20.47670000      24.02240000      -0.03062910      -0.00921883       0.00974448
O       29.06850000      27.65140000      19.91020000       0.13865900       0.09802390       0.01281080
H        5.99922000      29.72580000      19.85540000      -0.02453210      -0.08409950       0.00592271
H       27.41580000      27.53070000      19.83650000      -0.11711800      -0.00553917      -0.01913440
O       -7.07157000      22.34530000       0.74285900      -0.01526050       0.08575470      -0.01048760
H       -8.92416000      22.62480000       0.67678300       0.02318620      -0.01454090      -0.00301551
H       -6.62268000      24.36050000       0.40432600      -0.01364070      -0.07203580       0.01374830
O        9.30365000       4.20281000       9.21903000       0.00645269      -0.03519940       0.02902680
H        9.39262000       2.49569000      10.13720000      -0.00943552       0.02739920      -0.01161460
H        8.51828000       5.36374000      10.36300000      -0.00900110       0.00066837      -0.00101472
O       23.60080000      10.39890000      16.95170000       0.00208218       0.02209470      -0.03668960
H       22.52740000       9.32690000      15.87360000       0.01499440       0.00081266       0.01412680
H       24.43080000      11.60530000      15.72920000      -0.01936720      -0.02484950       0.02303760
O       11.25790000      -4.26096000       6.49117000       0.01030740      -0.02299820       0.05238750
H       10.61000000      17.83670000       7.87629000       0.03778700       0.05989660      -0.05503860
H       12.97750000      -3.54418000       7.00805000      -0.04743170      -0.02759110      -0.00397344
192
Lattice="23.46511 0.0 0.0 -1e-06 23.46511 0.0 -1e-06 -1e-06 23.46511" Properties=species:S:1:pos:R:3:forces:R:3 energy=-1103.24577 free_energy=-1103.24577 stress="0.0 0.0 0.0 0.0 0.0 0.0 0.0 0.0 0.0" pbc="T T T"
O        8.24890000      16.29450000      25.65570000       0.02396390      -0.05375530      -0.06368040
H        7.13136000      17.58240000      25.50640000      -0.06101520       0.05153280       0.00420727
H        8.85307000      16.15670000      27.24680000       0.03140970       0.00155291       0.07003330
O        8.14136000       4.20047000       6.50453000      -0.02591900       0.01021200       0.04081060
H        6.98560000       5.45679000       7.63144000       0.01229050      -0.02899290      -0.02844690
H        9.12268000       5.38344000       5.60327000       0.01586420       0.01796590      -0.02005960
O       -1.28927000      24.59310000       2.76117000       0.05660220       0.46928000       0.24915900
H       -1.34338000      23.36990000       2.08212000      -0.01515200      -0.43694200      -0.25023900
H        0.43561200      25.44030000       2.62460000      -0.04138850      -0.02454010       0.00317998
O       12.66550000       9.14361000      23.29260000      -0.03255410      -0.03292400      -0.03553030
H       12.81110000       7.66309000      22.03670000       0.01065690       0.03474110       0.02727870
H       10.81520000       9.51326000      23.01990000       0.02281950       0.00654405       0.01089200
O       18.42980000      10.02450000      11.03580000      -0.07078130      -0.07655940       0.05104120
H       16.94810000       8.56088000      11.82010000       0.07016650       0.06711310      -0.01149480
H       17.74370000       9.43074000       9.49187000       0.00634466       0.01478180      -0.03651650
O       15.73510000       3.41595000      25.78270000      -0.03224460      -0.04994800       0.05864070
H       17.19890000       2.51048000      26.29840000       0.00472069      -0.02012370       0.01646370
H       16.51810000       4.38577000      24.65070000       0.02735900       0.06564480      -0.07755850
O       -5.67052000       4.39161000       8.55056000       0.00042427      -0.04931790       0.01002960
H       -6.52647000       4.31769000      10.27150000       0.01724680      -0.00770045      -0.03083520
H       -5.04697000       2.56640000      31.57790000      -0.01423150       0.05571420       0.02107950
O       22.13130000      14.12430000      21.53480000       0.02021190      -0.03238950      -0.07293590
H       22.50340000      15.41880000      22.70530000       0.01938420       0.01317450      -0.00363193
H       23.21910000      14.08490000      19.68530000      -0.04038830       0.01987210       0.07627910
O        0.70089200      -9.34364000      16.69350000      -0.02027120      -0.03570560       0.04044220
H       -0.11184700     -10.82620000      16.01910000      -0.00333014      -0.01405090       0.00798116
H        1.15235000      -8.45182000      15.28850000       0.02179580       0.04293560      -0.04138420
O       22.08370000      15.86300000       5.15948000      -0.00168357      -0.02367640      -0.01352090
H       23.84140000      15.29170000       4.58750000      -0.03824360       0.00137257      -0.00785474
H       20.73330000      14.88540000       4.23631000       0.03308510       0.02047040       0.01925330
O        5.01140000      30.59730000      32.21170000      -0.06737780      -0.13565300      -0.00705794
H        3.22915000      30.31070000      31.45220000       0.04136430       0.01672170       0.02145890
H        5.37780000      32.20090000      32.16350000       0.01774720       0.12801600      -0.01106690
O        3.86215000      27.24570000       2.92806000       0.02716290       0.00086304       0.03598790
H        5.37962000      26.69940000       3.96907000      -0.02969460       0.01165470      -0.01969760
H        3.72552000      29.07190000       3.35761000       0.00608940      -0.02300640      -0.00789051
O       -5.50710000       9.03752000       5.28192000      -0.02753810      -0.04743330       0.02828460
H       18.89080000       9.15412000       3.79933000       0.02398940       0.01587670      -0.04078570
H       17.53650000       7.18625000       5.20707000       0.00016050       0.03589780       0.01519570
O       22.01420000       9.09055000      -6.71562000       0.04906100      -0.06259410       0.03207280
H       22.06730000       7.56796000      -7.88953000      -0.00358907       0.03534140       0.01753870
H       23.24860000       8.26895000      18.28020000      -0.04406670       0.02483220      -0.04871380
O       19.30660000      25.04630000      18.82190000      -0.00414677      -0.03088650       0.02077810
H       19.47000000      23.69260000      20.11650000       0.00733547       0.02199740      -0.00713019
H       17.89140000      24.32420000      17.94070000      -0.01115630       0.00585981      -0.01055510
O       11.40770000      17.32880000      -1.25273000      -0.10817900       0.12478000       0.01583460
H       12.54580000      16.19240000      -1.52743000       0.09278730      -0.10328500      -0.00318307
H       10.13870000      17.16190000       0.20263200       0.03116140      -0.01954820      -0.01925500
O       20.16070000      -3.82154000      11.60260000      -0.02904590      -0.01833990       0.03686260
H       19.33440000      -5.28594000      12.51010000      -0.01651090       0.03025800      -0.00068728
H       21.23620000      18.43470000      10.92260000       0.04459810      -0.01002580      -0.03469710
O       14.26130000       0.52143000      16.41880000       0.04327800       0.03818300      -0.07921790
H       14.00910000      -0.87698100      15.37350000      -0.00649988      -0.03566610      -0.00393651
H       13.80860000       0.42898700      18.03080000      -0.03507750      -0.01725640       0.09331700
O       15.33880000      27.58720000      13.29730000      -0.06137960       0.00519149      -0.02735240
H       38.68720000      26.17500000      14.42120000       0.01421290      -0.00990832       0.01491350
H       13.43710000      27.44580000      12.77790000       0.05196990       0.01459930       0.00517760
O       10.55490000       4.79439000      11.26510000       0.05212740      -0.01155520       0.03380360
H        9.88064000       4.52814000       9.69759000      -0.02243200      -0.01801580      -0.05974070
H        9.26342000       5.57840000      12.12200000      -0.04019720       0.01750290       0.03395270
O        5.02189000     -12.01560000      19.51690000       0.02660150      -0.00720699      -0.01387270
H        3.75791000     -10.78400000      19.02800000       0.01895490      -0.00670852      -0.01450320
H        6.56531000     -12.40070000      18.30320000      -0.05484710       0.01248250       0.02141330
O       10.25040000      17.84640000      -6.28397000      -0.06992660       0.05908530       0.00832455
H       10.47550000      17.32120000      -4.60668000       0.02583250      -0.02741770       0.03644580
H        8.71716000      19.01670000      -5.53019000       0.03932820      -0.03412790      -0.05346220
O        7.82976000       4.61768000      -1.90107000       0.05099750      -0.00490990      -0.04371740
H        8.90007000       3.63769000      -0.74417600      -0.01095070       0.00980228      -0.01298800
H        8.98720000       4.87691000      -3.49031000      -0.03662720      -0.00791521       0.05510390
O       15.75660000      13.84260000      22.76460000      -0.16754800      -0.00351555       0.15871000
H       14.89170000      12.11130000      23.47660000       0.02468050       0.06030680      -0.03622940
H       16.80970000      13.26380000      21.72430000       0.13058100      -0.06033810      -0.12823000
O       21.20580000       0.01347000       8.01482000       0.01852210       0.05904540       0.03337860
H       20.42930000      -1.00159000       9.22296000      -0.01222610      -0.03081410       0.02200590
H       20.92080000      -0.59141500       6.43514000      -0.01586720      -0.02605960      -0.05739180
O        3.32925000      32.31580000       2.04877000       0.04274670       0.08255650       0.06863400
H        4.78742000       9.29056000       1.06599000       0.01467880       0.00041477      -0.00380807
H        2.54276000      31.09000000       1.28256000      -0.06002060      -0.08286180      -0.07311370
O        8.24248000       8.88389000      16.64030000       0.06327170       0.06799230      -0.03767200
H        9.17920000      10.02490000      15.28400000      -0.00196973      -0.01824750       0.06445150
H        7.43214000       8.16655000      15.26840000      -0.04942680      -0.04823480      -0.01484620
O       -2.51213000       9.76180000       1.16726000      -0.02130460       0.01363450      -0.03256990
H       -1.23949000       9.62353000       2.39290000       0.02587350       0.00471990       0.00821463
H       -2.12460000      11.15940000      -0.06102100       0.00210266      -0.01549250       0.02100260
O       12.83000000      10.73100000      14.45730000       0.04311860      -0.00097550       0.01413760
H       14.47750000      11.02150000      15.43250000      -0.03908490      -0.00807223      -0.01353830
H       13.39390000       9.80568000      12.97570000      -0.00652831       0.01373860       0.00233308
O        2.70410000      21.94460000       7.75812000      -0.03127810       0.06337860       0.05149010
H        1.24149000      23.14200000       7.47483000       0.02527030      -0.02055020       0.02515500